441   
Geometry Step: 12 
C 23.44446190 15.65075241 15.69432318
C 24.26399334 14.77221678 14.74207914
N 23.58183238 14.64648306 13.45895156
C 24.07540291 15.23603758 12.33298893
C 23.43932691 14.91096020 10.97429558
N 22.46771934 13.82009156 11.08946496
C 22.89460355 12.53344064 11.34042296
C 21.84268575 11.42878398 11.31579505
N 20.77066087 11.79327742 10.42745127
C 24.59270246 13.38722735 15.34881000
O 24.78727572 13.25839068 16.54761610
N 24.65525633 12.32705606 14.49570837
O 25.00848710 16.05517904 12.43084332
C 22.74431598 16.15664519 10.38433657
C 23.72943002 17.31122037 10.10470178
C 23.37244211 18.57185125 10.89193133
O 23.81360176 18.58523138 12.16360684
O 22.72702035 19.47058999 10.42262697
O 24.08463774 12.32696254 11.58513153
C 22.52638204 10.07402502 10.95571827
S 21.39234469 8.65542252 11.11133875
H 19.97288399 11.14818233 10.44107077
H 21.06583741 11.89243525 9.44803138
H 21.42097539 11.36649408 12.36376147
H 22.90224550 10.14314148 9.90436805
H 23.43586373 9.95828170 11.59638306
H 20.58785564 8.94656684 10.06120119
H 21.47711524 13.95783335 10.85319815
H 24.25278874 14.57450237 10.28399453
H 22.21342067 15.86490855 9.45715840
H 21.94315467 16.50314474 11.07870033
H 24.78680510 16.99389888 10.29140991
H 23.69396189 17.53468360 9.03421566
H 24.32202435 17.77249034 12.37910602
H 22.79748216 13.98217154 13.37152824
H 25.22562295 15.29905299 14.48891150
H 22.47309110 15.18929750 15.90957569
H 23.26068624 16.65214922 15.27007306
H 23.98441790 15.76622963 16.63245365
H 24.52432747 12.41517222 13.49317631
H 24.91577544 11.42286527 14.85214230
Au 20.66226207 0.03887762 6.82623310
Au 5.93073708 0.03793315 6.82635339
Au 14.76327995 0.03952822 6.82603744
Au 0.03149611 0.03982819 6.82646035
Au 17.70604777 0.02973528 6.82782445
Au 2.97572373 0.02911236 6.82801039
Au 11.81679253 0.03139074 6.82748626
Au 26.54945797 0.03291881 6.82814370
Au 23.60057714 0.03150987 6.82720726
Au 8.86793792 0.03025287 6.82709113
Au 19.17862660 2.58516892 6.82757111
Au 4.44731884 2.58476985 6.82728668
Au 16.24348066 2.58595511 6.82705932
Au 1.51187977 2.58542385 6.82676795
Au 13.28584058 2.58399419 6.82762572
Au 28.01778595 2.58376110 6.82790768
Au 10.34789650 2.58951337 6.82610514
Au 25.07982430 2.58993659 6.82622694
Au 22.12787655 2.58424286 6.82716256
Au 7.39585542 2.58358747 6.82773888
Au 23.59692476 5.13592237 6.82808717
Au 8.86491854 5.13608610 6.82762590
Au 11.82055240 5.13757708 6.82691820
Au 26.55235861 5.13745444 6.82670569
Au 20.66295188 5.13691470 6.82618753
Au 5.93043532 5.13776532 6.82604701
Au 17.70643605 5.13885226 6.82699870
Au 2.97484725 5.13933701 6.82700528
Au 14.76208818 5.13454059 6.82783331
Au 29.49253990 5.13490212 6.82704533
Au 16.24000274 7.68793077 6.82685137
Au 30.97272187 7.68843318 6.82577623
Au 13.28831939 7.69396253 6.82764495
Au 28.01908546 7.69460053 6.82729130
Au 22.13021761 7.69062437 6.83294809
Au 7.39783122 7.69338522 6.82609268
Au 10.34537298 7.68441946 6.82701419
Au 25.07825180 7.68339378 6.82720730
Au 19.17904047 7.68378592 6.83246033
Au 4.44681045 7.68606309 6.82842507
Au 28.02254423 22.99301157 6.82609287
Au 13.29169921 22.99322401 6.82710537
Au 25.07510402 23.00485237 6.82600039
Au 39.80932319 23.00633924 6.82661701
Au 22.12569627 22.99002280 6.82722989
Au 36.85773855 22.99371726 6.82834755
Au 16.23688758 23.00061698 6.82802715
Au 30.96812652 23.00056321 6.82756193
Au 19.18485798 22.99943776 6.82624624
Au 33.91519829 23.00080989 6.82630423
Au 20.65364918 10.21708802 6.82748128
Au 5.92534792 10.23515500 6.82682679
Au 17.70787842 10.24608764 6.82829412
Au 32.44318042 10.24817658 6.82605857
Au 14.75984644 10.23432329 6.82875877
Au 29.49218611 10.23484997 6.82877358
Au 23.60874635 10.23978439 6.82949205
Au 8.87114193 10.24257919 6.82778698
Au 11.81672493 10.24295749 6.82642525
Au 26.55052109 10.24266537 6.82626811
Au 13.29574533 12.79694493 6.82636089
Au 28.02896061 12.79630981 6.82615396
Au 22.14293049 12.80574800 6.81374314
Au 7.39637801 12.79770930 6.82606749
Au 10.34014071 12.78653356 6.82766938
Au 25.07786251 12.78502620 6.83059719
Au 19.17417886 12.79427006 6.82564201
Au 33.91527393 12.79091215 6.82773405
Au 16.23239400 12.79105083 6.82712984
Au 30.96586630 12.78970666 6.82722465
Au 11.81244887 15.34431209 6.82735331
Au 26.54986923 15.34070580 6.82878286
Au 23.63143244 15.30485992 6.78033451
Au 8.87767194 15.34524597 6.82698055
Au 20.63550012 15.34056486 6.82212487
Au 35.38286744 15.34211542 6.82780892
Au 17.71058365 15.34914933 6.82721945
Au 32.44477048 15.34777353 6.82626064
Au 14.76104380 15.34336448 6.82742205
Au 29.49428503 15.34146365 6.82730601
Au 16.23056426 17.89661793 6.82844296
Au 30.96297770 17.89530293 6.82817208
Au 19.18366609 17.89998031 6.82830725
Au 33.91847339 17.89594993 6.82701005
Au 13.29637283 17.89620253 6.82637391
Au 28.03203597 17.89611560 6.82718812
Au 25.11998917 17.91534725 6.76757166
Au 10.34061701 17.89879671 6.82755869
Au 22.05654128 17.93088300 6.74889357
Au 36.85909971 17.89292950 6.82773607
Au 23.60770085 20.46249974 6.81036050
Au 38.33903173 20.44654900 6.82635843
Au 20.65567004 20.45453279 6.82472625
Au 35.38540912 20.45208504 6.82750509
Au 14.76418735 20.45185896 6.82654654
Au 29.49630089 20.45179957 6.82601067
Au 17.71300425 20.44315444 6.82753058
Au 32.44364182 20.44245545 6.82708541
Au 26.54336657 20.44746458 6.82853256
Au 11.81289967 20.44432794 6.82839246
Au 19.16646493 0.86817496 4.60638797
Au 4.43513174 0.86802343 4.60649257
Au 10.32729793 0.87044403 4.60652277
Au 25.06011237 0.87010159 4.60617465
Au 22.11668538 0.87475863 4.60472839
Au 7.38441292 0.87506373 4.60517536
Au 13.27504169 0.87007332 4.60599879
Au 28.00641306 0.86985259 4.60561849
Au 1.48835346 0.87552936 4.60543755
Au 16.22035170 0.87504529 4.60549945
Au 20.63763658 3.42355225 4.60626021
Au 5.90564883 3.42353205 4.60628892
Au 14.74738001 3.42180920 4.60654132
Au 29.47861272 3.42157049 4.60633606
Au 23.58808456 3.42173298 4.60589346
Au 8.85599329 3.42174059 4.60601543
Au 11.80200862 3.42605493 4.60540564
Au 26.53401700 3.42607945 4.60520163
Au 17.69812873 3.42432314 4.60477561
Au 2.96615084 3.42412673 4.60528338
Au 16.21783320 5.97399506 4.60631687
Au 30.95021087 5.97376718 4.60662615
Au 10.32578398 5.97449509 4.60639115
Au 25.05678363 5.97458999 4.60642339
Au 13.27761034 5.97557908 4.60552814
Au 28.00949647 5.97544840 4.60533258
Au 22.11624122 5.97614870 4.60557547
Au 7.38444373 5.97549630 4.60492616
Au 19.16829432 5.97553975 4.60596578
Au 4.43623984 5.97519796 4.60598849
Au 23.58818369 8.52823032 4.60505143
Au 8.85701679 8.52897382 4.60523939
Au 14.74825626 8.52884809 4.60561846
Au 29.47988287 8.52898681 4.60605592
Au 17.69678867 8.52669771 4.60426857
Au 32.42853997 8.52682906 4.60524190
Au 20.63705699 8.52263545 4.60329404
Au 5.90491595 8.52488331 4.60606915
Au 11.80119448 8.52338894 4.60580091
Au 26.53286185 8.52339942 4.60582364
Au 19.16832982 11.08224101 4.60223946
Au 33.90104174 11.08174329 4.60520595
Au 10.32823395 11.07925541 4.60563805
Au 25.06050809 11.07959187 4.60488377
Au 16.21877142 11.07435772 4.60551879
Au 30.95056784 11.07428562 4.60691692
Au 13.27511633 11.08024169 4.60544094
Au 28.00690649 11.08045665 4.60594354
Au 22.11475008 11.07280311 4.60148946
Au 7.38356493 11.07467450 4.60606908
Au 11.80107893 13.62625509 4.60625119
Au 26.53448426 13.62472999 4.60534370
Au 17.69283176 13.62906177 4.60335038
Au 32.42536169 13.62881013 4.60646695
Au 14.75064205 13.63279872 4.60409965
Au 29.48226217 13.63282402 4.60503940
Au 20.63884982 13.62708952 4.59913941
Au 35.37228033 13.62871825 4.60568654
Au 23.58910699 13.62424448 4.58858840
Au 8.85432977 13.63372733 4.60562606
Au 13.27154608 16.18179077 4.60589763
Au 28.00528662 16.18035101 4.60542564
Au 22.11074040 16.17345111 4.59284435
Au 36.84451343 16.17990352 4.60653633
Au 16.22180507 16.17984155 4.60517591
Au 30.95394871 16.17986212 4.60613710
Au 19.16392852 16.18347066 4.60127030
Au 33.89992731 16.18410166 4.60550150
Au 10.33220093 16.18252646 4.60517248
Au 25.06941091 16.17851083 4.59015678
Au 23.58566651 18.73805042 4.59172907
Au 38.31559403 18.73187927 4.60599759
Au 17.69054722 18.73317709 4.60623676
Au 32.42309495 18.73246423 4.60651721
Au 20.62676487 18.74294770 4.58449819
Au 35.37561254 18.73362682 4.60548595
Au 14.75011352 18.73385507 4.60483744
Au 29.48314828 18.73364497 4.60480944
Au 11.80210929 18.73346781 4.60587726
Au 26.54683929 18.73976054 4.59069958
Au 16.22330108 21.28730177 4.60544875
Au 30.95527010 21.28721010 4.60550066
Au 22.11248359 21.28998523 4.60594770
Au 36.84598176 21.28676434 4.60564177
Au 25.06444655 21.28764707 4.60368768
Au 39.79445749 21.28574247 4.60522306
Au 13.27091087 21.28367636 4.60610086
Au 28.00366712 21.28416680 4.60613741
Au 19.16661712 21.28212321 4.60702157
Au 33.89911643 21.28142687 4.60572866
Au 26.53493989 23.84061957 4.60580744
Au 41.26694309 23.84044835 4.60526042
Au 17.69384978 23.83762722 4.60617727
Au 32.42623244 23.83726676 4.60589170
Au 23.58417337 23.83387304 4.60718575
Au 38.31660525 23.83239047 4.60615019
Au 20.64098127 23.83874059 4.60666600
Au 35.37301537 23.83839683 4.60563179
Au 14.74896916 23.83266888 4.60612866
Au 29.48087277 23.83277568 4.60572089
Au 14.73000000 22.11300000 2.19900000
Au 17.67600000 22.11300000 2.19900000
Au 20.62300000 22.11300000 2.19900000
Au 23.56900000 22.11300000 2.19900000
Au 26.51500000 22.11300000 2.19900000
Au 29.46200000 22.11300000 2.19900000
Au 32.40800000 22.11300000 2.19900000
Au 35.35500000 22.11300000 2.19900000
Au 38.30100000 22.11300000 2.19900000
Au 41.24700000 22.11300000 2.19900000
Au 16.20300000 24.66500000 2.19900000
Au 19.15000000 24.66500000 2.19900000
Au 22.09600000 24.66500000 2.19900000
Au 25.04200000 24.66500000 2.19900000
Au 27.98900000 24.66500000 2.19900000
Au 30.93500000 24.66500000 2.19900000
Au 33.88100000 24.66500000 2.19900000
Au 36.82800000 24.66500000 2.19900000
Au 39.77400000 24.66500000 2.19900000
Au 42.72000000 24.66500000 2.19900000
Au 10.31100000 14.45800000 2.19900000
Au 13.25700000 14.45800000 2.19900000
Au 16.20300000 14.45800000 2.19900000
Au 19.15000000 14.45800000 2.19900000
Au 22.09600000 14.45800000 2.19900000
Au 25.04200000 14.45800000 2.19900000
Au 27.98900000 14.45800000 2.19900000
Au 30.93500000 14.45800000 2.19900000
Au 33.88100000 14.45800000 2.19900000
Au 36.82800000 14.45800000 2.19900000
Au 11.78400000 17.01000000 2.19900000
Au 14.73000000 17.01000000 2.19900000
Au 17.67600000 17.01000000 2.19900000
Au 20.62300000 17.01000000 2.19900000
Au 23.56900000 17.01000000 2.19900000
Au 26.51500000 17.01000000 2.19900000
Au 29.46200000 17.01000000 2.19900000
Au 32.40800000 17.01000000 2.19900000
Au 35.35500000 17.01000000 2.19900000
Au 38.30100000 17.01000000 2.19900000
Au 11.78400000 11.90700000 2.19900000
Au 14.73000000 11.90700000 2.19900000
Au 17.67600000 11.90700000 2.19900000
Au 20.62300000 11.90700000 2.19900000
Au 23.56900000 11.90700000 2.19900000
Au 26.51600000 11.90700000 2.19900000
Au 29.46200000 11.90700000 2.19900000
Au 32.40800000 11.90700000 2.19900000
Au 35.35500000 11.90700000 2.19900000
Au 8.83700000 11.90700000 2.19900000
Au 13.25700000 19.56100000 2.19900000
Au 16.20300000 19.56100000 2.19900000
Au 19.15000000 19.56100000 2.19900000
Au 22.09600000 19.56100000 2.19900000
Au 25.04200000 19.56100000 2.19900000
Au 27.98900000 19.56100000 2.19900000
Au 30.93500000 19.56100000 2.19900000
Au 33.88100000 19.56100000 2.19900000
Au 36.82800000 19.56100000 2.19900000
Au 39.77400000 19.56100000 2.19900000
Au 10.31100000 9.35500000 2.19900000
Au 13.25700000 9.35500000 2.19900000
Au 16.20300000 9.35500000 2.19900000
Au 19.15000000 9.35500000 2.19900000
Au 22.09600000 9.35500000 2.19900000
Au 25.04200000 9.35500000 2.19900000
Au 27.98900000 9.35500000 2.19900000
Au 30.93500000 9.35500000 2.19900000
Au 33.88100000 9.35500000 2.19900000
Au 7.36400000 9.35500000 2.19900000
Au 11.78400000 6.80300000 2.19900000
Au 14.73000000 6.80300000 2.19900000
Au 17.67600000 6.80300000 2.19900000
Au 20.62300000 6.80300000 2.19900000
Au 23.56900000 6.80300000 2.19900000
Au 26.51600000 6.80300000 2.19900000
Au 29.46200000 6.80300000 2.19900000
Au 32.40800000 6.80300000 2.19900000
Au 5.89100000 6.80300000 2.19900000
Au 8.83700000 6.80300000 2.19900000
Au 11.78400000 1.70000000 2.19900000
Au 14.73000000 1.70000000 2.19900000
Au 17.67600000 1.70000000 2.19900000
Au 20.62300000 1.70000000 2.19900000
Au 23.56900000 1.70000000 2.19900000
Au 26.51600000 1.70000000 2.19900000
Au 2.94500000 1.70000000 2.19900000
Au 29.46200000 1.70000000 2.19900000
Au 5.89100000 1.70000000 2.19900000
Au 8.83700000 1.70000000 2.19900000
Au 10.31100000 4.25200000 2.19900000
Au 13.25700000 4.25200000 2.19900000
Au 16.20300000 4.25200000 2.19900000
Au 19.15000000 4.25200000 2.19900000
Au 22.09600000 4.25200000 2.19900000
Au 25.04200000 4.25200000 2.19900000
Au 27.98900000 4.25200000 2.19900000
Au 30.93500000 4.25200000 2.19900000
Au 4.41800000 4.25200000 2.19900000
Au 7.36400000 4.25200000 2.19900000
Au 11.77800000 5.09900000 0.00000000
Au 14.72400000 5.09900000 0.00000000
Au 17.67000000 5.09900000 0.00000000
Au 20.61700000 5.09900000 0.00000000
Au 23.56300000 5.09900000 0.00000000
Au 26.50900000 5.09900000 0.00000000
Au 29.45600000 5.09900000 0.00000000
Au 32.40200000 5.09900000 0.00000000
Au 5.88500000 5.09900000 0.00000000
Au 8.83100000 5.09900000 0.00000000
Au 10.30400000 2.54700000 0.00000000
Au 13.25100000 2.54700000 0.00000000
Au 16.19700000 2.54700000 0.00000000
Au 19.14400000 2.54700000 0.00000000
Au 22.09000000 2.54700000 0.00000000
Au 25.03600000 2.54700000 0.00000000
Au 27.98300000 2.54700000 0.00000000
Au 30.92900000 2.54700000 0.00000000
Au 4.41200000 2.54700000 0.00000000
Au 7.35800000 2.54700000 0.00000000
Au 10.30400000 7.65000000 0.00000000
Au 13.25100000 7.65000000 0.00000000
Au 16.19700000 7.65000000 0.00000000
Au 19.14400000 7.65000000 0.00000000
Au 22.09000000 7.65000000 0.00000000
Au 25.03600000 7.65000000 0.00000000
Au 27.98300000 7.65000000 0.00000000
Au 30.92900000 7.65000000 0.00000000
Au 33.87500000 7.65000000 0.00000000
Au 7.35800000 7.65000000 0.00000000
Au 11.77800000 10.20200000 0.00000000
Au 14.72400000 10.20200000 0.00000000
Au 17.67000000 10.20200000 0.00000000
Au 20.61700000 10.20200000 0.00000000
Au 23.56300000 10.20200000 0.00000000
Au 26.50900000 10.20200000 0.00000000
Au 29.45600000 10.20200000 0.00000000
Au 32.40200000 10.20200000 0.00000000
Au 35.34800000 10.20200000 0.00000000
Au 8.83100000 10.20200000 0.00000000
Au 10.30400000 12.75400000 0.00000000
Au 13.25100000 12.75400000 0.00000000
Au 16.19700000 12.75400000 0.00000000
Au 19.14400000 12.75400000 0.00000000
Au 22.09000000 12.75400000 0.00000000
Au 25.03600000 12.75400000 0.00000000
Au 27.98300000 12.75400000 0.00000000
Au 30.92900000 12.75400000 0.00000000
Au 33.87500000 12.75400000 0.00000000
Au 36.82200000 12.75400000 0.00000000
Au 11.77800000 15.30500000 0.00000000
Au 14.72400000 15.30500000 0.00000000
Au 17.67000000 15.30500000 0.00000000
Au 20.61700000 15.30500000 0.00000000
Au 23.56300000 15.30500000 0.00000000
Au 26.50900000 15.30500000 0.00000000
Au 29.45600000 15.30500000 0.00000000
Au 32.40200000 15.30500000 0.00000000
Au 35.34800000 15.30500000 0.00000000
Au 38.29500000 15.30500000 0.00000000
Au 13.25100000 17.85700000 0.00000000
Au 16.19700000 17.85700000 0.00000000
Au 19.14400000 17.85700000 0.00000000
Au 22.09000000 17.85700000 0.00000000
Au 25.03600000 17.85700000 0.00000000
Au 27.98300000 17.85700000 0.00000000
Au 30.92900000 17.85700000 0.00000000
Au 33.87500000 17.85700000 0.00000000
Au 36.82200000 17.85700000 0.00000000
Au 39.76800000 17.85700000 0.00000000
Au 14.72400000 20.40800000 0.00000000
Au 17.67000000 20.40800000 0.00000000
Au 20.61700000 20.40800000 0.00000000
Au 23.56300000 20.40800000 0.00000000
Au 26.50900000 20.40800000 0.00000000
Au 29.45600000 20.40800000 0.00000000
Au 32.40200000 20.40800000 0.00000000
Au 35.34800000 20.40800000 0.00000000
Au 38.29500000 20.40800000 0.00000000
Au 41.24100000 20.40800000 0.00000000
Au 16.19700000 22.96000000 0.00000000
Au 19.14400000 22.96000000 0.00000000
Au 22.09000000 22.96000000 0.00000000
Au 25.03600000 22.96000000 0.00000000
Au 27.98300000 22.96000000 0.00000000
Au 30.92900000 22.96000000 0.00000000
Au 33.87500000 22.96000000 0.00000000
Au 36.82200000 22.96000000 0.00000000
Au 39.76800000 22.96000000 0.00000000
Au 42.71400000 22.96000000 0.00000000
Au 17.67000000 25.51200000 0.00000000
Au 20.61700000 25.51200000 0.00000000
Au 23.56300000 25.51200000 0.00000000
Au 26.50900000 25.51200000 0.00000000
Au 29.45600000 25.51200000 0.00000000
Au 32.40200000 25.51200000 0.00000000
Au 35.34800000 25.51200000 0.00000000
Au 38.29500000 25.51200000 0.00000000
Au 41.24100000 25.51200000 0.00000000
Au 44.18800000 25.51200000 0.00000000
