162
energy: -202.080166919403 gnorm: 0.000032423294 xtb: 6.5.1 (579679a)
O         -4.29300       -3.49450       -2.15930
C         -3.99210       -4.59980       -1.79010
O         -4.39520       -5.69060       -2.45540
C         -3.10000       -4.94270       -0.60280
C         -2.78270       -3.66680        0.19830
C         -1.30840       -3.33970        0.32450
C         -0.96400       -2.05980        0.37550
C          0.42010       -1.52350        0.52120
C          1.49920       -2.60270        0.65910
C          1.10950       -3.88930       -0.11320
C          2.23480       -4.92730        0.06130
C          3.63350       -4.37190       -0.19380
C          3.90900       -3.19710        0.74240
C          2.93690       -2.03590        0.41810
C          3.13460       -1.42360       -0.97710
C          3.16160       -0.93010        1.46940
C          4.62070       -0.51180        1.59360
C          5.50080       -1.70820        1.94140
O          6.84030       -1.28950        2.18040
C          5.40940       -2.83560        0.88680
C          6.10940       -2.44370       -0.41840
C          6.17190       -4.03790        1.46830
C          0.92160       -3.63740       -1.61370
C         -0.25550       -4.42130        0.48410
C         -0.15740       -4.71770        1.99600
C         -0.71320       -5.72300       -0.21450
C         -1.82230       -5.51470       -1.23720
C         -3.43660       -3.68360        1.58900
C         -4.92610       -4.05640        1.57380
C         -5.39340       -4.22140        3.02510
C         -5.74690       -2.93590        0.92850
C         -5.13470       -5.38370        0.80630
C         -3.83520       -5.97360        0.26160
H         -4.92920       -5.43090       -3.22250
H         -3.23010       -2.83240       -0.35210
H         -1.72870       -1.29780        0.28190
H          0.44370       -0.87310        1.40030
H          0.61230       -0.87820       -0.34000
H          1.51570       -2.89880        1.71100
H          2.22630       -5.32120        1.07720
H          2.07600       -5.76730       -0.61710
H          3.73720       -4.08170       -1.23810
H          4.34870       -5.17360       -0.00870
H          3.62270       -3.53370        1.74780
H          3.63680       -2.10040       -1.65930
H          2.18610       -1.14370       -1.42390
H          3.73010       -0.51630       -0.91980
H          2.56410       -0.05280        1.21930
H          2.83610       -1.29260        2.44610
H          4.71220        0.23690        2.38470
H          4.97810       -0.04590        0.67210
H          5.17440       -2.12160        2.90220
H          7.16580       -0.85710        1.38240
H          5.92140       -3.19330       -1.18200
H          5.78340       -1.48070       -0.79680
H          7.18670       -2.40610       -0.25960
H          5.62180       -4.48600        2.29200
H          6.35610       -4.79670        0.71270
H          7.13310       -3.70140        1.85090
H          0.12830       -2.91920       -1.79700
H          0.67270       -4.56400       -2.12360
H          1.83400       -3.26600       -2.06110
H         -0.05810       -3.80510        2.57520
H          0.67360       -5.37830        2.22690
H         -1.06320       -5.21530        2.33130
H          0.12520       -6.20380       -0.71460
H         -1.06730       -6.43280        0.53370
H         -1.48920       -4.82170       -2.01150
H         -2.05910       -6.46790       -1.71520
H         -3.31860       -2.68830        2.02170
H         -2.91150       -4.38110        2.24020
H         -6.45160       -4.47060        3.06020
H         -5.24700       -3.29710        3.58030
H         -4.83740       -5.01170        3.52600
H         -5.58710       -1.99520        1.45230
H         -6.80790       -3.17380        0.97270
H         -5.47140       -2.79660       -0.11270
H         -5.81780       -5.21420       -0.02840
H         -5.60620       -6.12030        1.45990
H         -3.19540       -6.28820        1.08520
H         -4.06140       -6.85480       -0.34070
O          5.25690       -1.59610        5.14170
C          5.61840       -0.45660        5.30670
O          6.47590        0.14640        4.49170
C          5.08750        0.46780        6.40150
C          4.31040       -0.38040        7.43190
C          2.83860       -0.47210        7.10170
C          2.29100       -1.66870        6.94680
C          0.87810       -1.94230        6.55550
C          0.01180       -0.68460        6.43930
C          0.83880        0.52530        5.92370
C         -0.09140        1.74800        5.83660
C         -1.39180        1.46790        5.08980
C         -2.16020        0.35460        5.80060
C         -1.35610       -0.96700        5.72960
C         -1.21270       -1.53600        4.30960
C         -2.10260       -2.01000        6.58900
C         -3.57380       -2.14890        6.21610
C         -4.31000       -0.81410        6.31250
O         -5.68810       -0.97520        6.05440
C         -3.66150        0.28090        5.42530
C         -3.94600        0.03140        3.94070
C         -4.34880        1.60550        5.79890
C          1.42140        0.25850        4.53330
C          2.02390        0.79410        6.93560
C          1.49510        1.21690        8.32360
C          2.97690        1.92400        6.47450
C          4.17540        1.46120        5.65090
C          4.59790        0.08310        8.86360
C          6.07710       -0.10310        9.24820
C          6.39810        0.83150       10.41930
C          6.33900       -1.54570        9.68550
C          6.96940        0.24620        8.04060
C          6.26180        1.19060        7.07540
H          6.72320       -0.44370        3.73540
H          4.69590       -1.40180        7.35190
H          2.89900       -2.55610        7.06780
H          0.44270       -2.61850        7.29670
H          0.90710       -2.49670        5.61360
H         -0.28250       -0.42050        7.45830
H         -0.36230        2.07950        6.83830
H          0.42540        2.57300        5.34250
H         -1.18430        1.21010        4.05270
H         -1.98170        2.38460        5.08530
H         -2.16740        0.62370        6.86590
H         -1.34230       -0.78080        3.54230
H         -1.94910       -2.31350        4.12790
H         -0.24010       -1.99570        4.16680
H         -2.04520       -1.71950        7.64080
H         -1.62340       -2.98430        6.48400
H         -4.05530       -2.85760        6.89420
H         -3.68140       -2.55160        5.20700
H         -4.27110       -0.46810        7.35230
H         -5.78800       -1.32470        5.16170
H         -3.70420       -0.98070        3.63400
H         -3.37340        0.72180        3.32750
H         -5.00080        0.21190        3.73590
H         -4.01090        1.96270        6.76900
H         -5.42330        1.44350        5.85370
H         -4.15960        2.37630        5.05650
H          2.17110       -0.52610        4.57760
H          1.87270        1.16300        4.13410
H          0.64890       -0.04010        3.83850
H          1.06430        2.21470        8.28720
H          2.30790        1.23750        9.04050
H          0.75250        0.52610        8.70940
H          3.36000        2.43460        7.35960
H          2.42630        2.66930        5.90040
H          3.83150        0.99330        4.73030
H          4.77130        2.33150        5.36550
H          4.34540        1.13650        8.97540
H          3.97210       -0.48940        9.55120
H          5.70660        0.66230       11.24240
H          6.31980        1.87330       10.11510
H          7.40900        0.65710       10.78180
H          6.04820       -2.24530        8.90560
H          5.77480       -1.78150       10.58560
H          7.39670       -1.69050        9.89650
H          7.23170       -0.66450        7.49780
H          7.90000        0.69750        8.38980
H          6.95660        1.53070        6.30630
H          5.90030        2.07130        7.60850
